# LAMMPS data
768 atoms
2 atom types
0.0 19.2200000 xlo xhi
0.0 20.1000000 ylo yhi
0.0 19.8300000 zlo zhi
0.0 0.0 0.0 xy xz yz
 
Atoms # metal
 
   1   1     14.7120479  17.1761865  16.8797219
   2   2     14.8811532  17.5706850  17.8222819
   3   2     13.7095598  16.9357537  16.7352994
   4   1      0.1479912   6.6982183   2.8629687
   5   2      0.3956426   6.7155736   1.8617212
   6   2     -0.2183676   7.6127169   2.9724420
   7   1      6.5316805  19.4101133  10.1514217
   8   2      6.4422272  19.3366830   9.1213697
   9   2      7.2888364  18.8321090  10.4854815
  10   1     11.6431389   2.7212298   6.9166640
  11   2     12.5530403   3.1130107   6.8380252
  12   2     11.4395258   2.2259795   6.0867683
  13   1      9.4008174   9.4337345   5.0671103
  14   2     10.1484576   9.2790258   4.3684954
  15   2      8.7286906  10.1877156   4.7366487
  16   1      8.7947911   7.9391270   7.1472708
  17   2      9.0965480   8.5677383   6.4051042
  18   2      9.1305855   6.9511868   6.8347595
  19   1      3.1444221   2.2300426  16.9801322
  20   2      3.0747078   1.4441293  16.2664654
  21   2      2.1626995   2.4939937  17.2368227
  22   1      6.9489194  15.1086294  17.8955393
  23   2      6.4488629  15.7758266  18.5022155
  24   2      7.0338509  15.5769150  17.0318862
  25   1     13.9002032  12.8474119   6.2123530
  26   2     13.2175608  13.5483575   6.4000355
  27   2     14.7275513  13.1819955   6.6392402
  28   1      1.3631237  18.9627900  18.5829192
  29   2      1.6078753  19.5492143  19.3880203
  30   2      0.7880328  19.6164024  18.0996148
  31   1     15.5078879   8.9988298  12.4103698
  32   2     15.0385860   9.6988783  11.7291229
  33   2     14.7733640   8.4172975  12.8266613
  34   1      3.8378301  17.5682272   2.0683970
  35   2      3.0660108  17.2295631   2.5894668
  36   2      4.1870049  18.5183657   2.2461644
  37   1      8.6262889   1.6281291  19.3583940
  38   2      7.8266131   2.2706419  19.2234034
  39   2      9.1557886   1.7272408  18.4829697
  40   1     15.6306350   4.2562269  17.3034745
  41   2     16.1174441   5.1562146  17.0465956
  42   2     16.3015338   3.6435022  16.9073688
  43   1     14.9638097   0.5052966   6.1419324
  44   2     14.4334328   0.3964757   6.9955714
  45   2     14.4641892   0.2158579   5.2773168
  46   1      0.7980678   6.0505129  11.0466792
  47   2      1.3415307   6.9140378  10.7565324
  48   2      1.5072546   5.4230914  11.4678098
  49   1     12.2785314  15.1469546   5.0972413
  50   2     12.8539678  15.6455007   4.4501248
  51   2     12.3409078  15.4826779   6.0607733
  52   1     11.3076765   1.6216904  12.5331574
  53   2     11.3166890   2.5403542  12.9965410
  54   2     11.1348770   1.8459011  11.5330549
  55   1      1.0789059   2.5798265   8.7316187
  56   2      0.7089765   3.4107306   8.3798380
  57   2      0.2492780   2.0335616   9.0119887
  58   1     14.1223352   8.9251661  16.5499984
  59   2     15.0622249   8.7859220  16.1025890
  60   2     14.3707443   9.4532347  17.4398122
  61   1      8.5730499  17.2856442   6.3215295
  62   2      8.2423208  16.4780654   6.7936950
  63   2      8.9290115  17.9017807   7.0585492
  64   1     14.2220245   5.8624232   5.8658560
  65   2     14.7728108   5.5847142   5.0636685
  66   2     14.1456847   5.0861611   6.4962808
  67   1     16.5317561  11.3408060   8.1234316
  68   2     16.4445554  12.3803410   7.9655662
  69   2     15.6444669  11.2141534   8.6319403
  70   1     11.7273238   5.3249043  11.7327866
  71   2     12.5539232   5.6971166  11.2686980
  72   2     11.0220773   5.4060830  10.9902514
  73   1     11.9156845   9.0842643   3.6855588
  74   2     11.8295648   9.9482833   3.1285866
  75   2     12.7686683   9.0605357   4.1797627
  76   1      7.4977803   1.6855547  10.6262012
  77   2      8.2869976   1.8161130   9.9444014
  78   2      6.9151413   0.8507944  10.3526382
  79   1     18.9107637  16.5239719  19.7313203
  80   2     19.2224697  17.5139072  19.7071275
  81   2     17.9383526  16.5314955  20.0651940
  82   1     13.9368676   8.4630968   5.6708164
  83   2     13.9206958   7.4801033   5.9084614
  84   2     14.5778145   8.5904289   4.8329102
  85   1      7.2951220   7.0235011   9.1931224
  86   2      7.8671211   7.2092888   8.3648964
  87   2      7.6572795   6.2724985   9.8378792
  88   1     17.7676395   2.9063746  15.9484800
  89   2     18.5410133   2.5224883  16.5028365
  90   2     18.2542863   3.4428458  15.1530376
  91   1     18.5885584  19.0840245   4.8422420
  92   2     17.7456463  18.5343975   5.1827920
  93   2     19.4366727  18.5686406   5.1787261
  94   1      2.3019069  16.1038274   3.9944775
  95   2      2.3758489  15.2358699   4.5945630
  96   2      1.6401401  15.9227913   3.2074608
  97   1     17.7841816   3.5682177  11.1419354
  98   2     17.7916005   2.8536166  10.4002942
  99   2     18.2068053   4.4039888  10.6856851
 100   1      6.4935908   8.6214433  14.3279155
 101   2      6.2629097   9.5298370  13.8755435
 102   2      7.5370124   8.5191136  14.3576641
 103   1      9.8447277  14.9960880  13.4672240
 104   2      8.9970838  14.5699833  13.1272788
 105   2      9.5580422  15.8507309  14.0143798
 106   1      3.9315910   5.4074106  19.0316893
 107   2      3.5055002   5.1763990  19.9228954
 108   2      4.4430195   6.3400898  19.0695845
 109   1     11.7520923  11.6696012  11.3347039
 110   2     11.1340542  11.5994470  12.1714059
 111   2     11.0853964  11.6445071  10.5251772
 112   1     12.0814102  11.2197447  19.2201811
 113   2     12.1645959  11.8519190  18.4310210
 114   2     12.6924499  10.4370034  19.1263615
 115   1     14.7328132  18.5788120   9.8605646
 116   2     15.7210256  18.7553483   9.7204873
 117   2     14.5380180  19.0054351  10.7789821
 118   1      1.7056663  11.5031342  18.1894811
 119   2      2.3541959  10.9207768  17.5800578
 120   2      0.7968635  10.9593517  18.2427268
 121   1     17.9787871   1.3939841   9.0402188
 122   2     17.6685036   0.5370745   9.4229320
 123   2     17.8125179   1.4493134   7.9857850
 124   1      2.8386308   8.9945977   1.3371860
 125   2      3.2219167   8.5857230   0.5178808
 126   2      2.6881572   8.2875585   2.0720138
 127   1      5.5717860  12.0862795  -0.2464945
 128   2      5.4675198  11.4119687   0.5775164
 129   2      4.9648769  12.9259259  -0.0474373
 130   1      9.1636033   2.5682322  15.3772611
 131   2      9.9970966   3.1160395  15.1105029
 132   2      8.7554943   2.0811922  14.5784760
 133   1      4.4026076  14.2494403   0.8545384
 134   2      4.4993492  14.0384827   1.8338772
 135   2      4.3847875  15.2666744   0.6810878
 136   1      1.1715991   2.7643314   0.6993505
 137   2      1.7256691   3.5657900   1.0901081
 138   2      0.2146964   2.7489102   1.1648202
 139   1      4.8980095   4.2204563  16.6318100
 140   2      4.5380001   4.8353160  17.3890468
 141   2      4.2865532   3.3817648  16.5210054
 142   1     11.9493471  15.7129702  11.6749859
 143   2     11.0339785  15.5108111  12.1293472
 144   2     12.5973296  14.9629694  11.9488892
 145   1     11.6855342   7.9439779  15.3788296
 146   2     11.5280862   7.1670251  16.0115862
 147   2     12.4581549   8.5743883  15.7976071
 148   1     13.9133929   0.8167877  11.4421444
 149   2     13.0681417   1.2034801  11.8245647
 150   2     14.3181196   1.6937916  11.0394075
 151   1      8.5584660   7.0911210   1.1357410
 152   2      9.0107337   7.1599382   0.2167425
 153   2      8.0368759   6.2159886   1.0749117
 154   1     18.0348592  13.8786583  18.3161105
 155   2     18.1726375  13.4958218  17.3876493
 156   2     18.6537040  14.5859658  18.6440487
 157   1      4.7746646  13.2891690   3.5361777
 158   2      4.7044395  12.3053221   3.2895077
 159   2      3.9715003  13.2790247   4.1447536
 160   1      4.4899975   8.6660866  11.4207195
 161   2      4.0494314   9.0261111  12.3407514
 162   2      5.1068356   9.3999728  11.0653060
 163   1     16.5585100   4.7214182   8.2716462
 164   2     16.3949219   5.4533188   8.8688210
 165   2     17.5347371   4.7838388   8.1077223
 166   1      7.5319708  20.0137522   1.2955210
 167   2      8.0435746  20.7260217   0.7065413
 168   2      7.9874571  19.0757580   1.0337067
 169   1      2.1015277  11.9652986   9.9025287
 170   2      1.1620776  11.5757729  10.0050008
 171   2      1.8058860  12.9432327   9.7831972
 172   1     14.3946372  10.5884432  10.3880627
 173   2     14.0731951   9.9149334   9.6850512
 174   2     13.4296094  10.8803577  10.7144250
 175   1      4.7960373   0.8587326  19.0211820
 176   2      5.4478574   1.6761875  19.0786919
 177   2      4.0244221   1.1332325  18.4377251
 178   1     17.0774616  18.6255505  16.4082036
 179   2     16.1807580  18.1274450  16.5349726
 180   2     17.6545787  17.9895861  15.9187782
 181   1     18.0994623  19.4600704   2.2993766
 182   2     18.9684711  19.9454407   2.0309401
 183   2     18.1549660  19.3756031   3.2866455
 184   1      9.4750304  17.9989696   1.2616311
 185   2     10.4567071  18.3217142   1.4834674
 186   2      9.0467649  17.5514864   2.0866798
 187   1     16.3908352  12.0411860  11.5242124
 188   2     15.6389885  11.6008680  11.0119596
 189   2     16.0468527  13.0037041  11.6475614
 190   1      6.8196653  19.1475763  17.8387099
 191   2      6.4202790  20.0829410  17.8724664
 192   2      6.3972320  18.6368760  18.5887828
 193   1      7.8540398   4.8335375  10.8634852
 194   2      7.4427074   3.8993063  10.9972177
 195   2      7.2830609   5.3710569  11.5525624
 196   1      9.2517070  11.3135818   9.2237233
 197   2      9.5577690  11.8668832   8.3765332
 198   2      8.4311371  10.7309999   9.2138184
 199   1      9.3932538  11.1784247   0.2641745
 200   2     10.3455193  11.1493256  -0.1834665
 201   2      8.7248785  11.9068974  -0.0364777
 202   1     13.2253311   0.2902081   8.3584103
 203   2     12.8917675   1.1795615   8.7362525
 204   2     13.6757379  -0.2625932   9.1558185
 205   1     15.6352976  12.6709821  19.2530746
 206   2     14.7274208  13.0255714  18.9606517
 207   2     16.4204277  13.2914393  19.0053025
 208   1     12.5653831  15.4163465   0.8644425
 209   2     11.5180181  15.4778525   0.7781926
 210   2     12.9792956  15.2270326   1.7645223
 211   1     18.7050537   6.2836884  19.4777483
 212   2     18.0160532   6.2306305  18.6753603
 213   2     19.5781613   6.0866167  18.9188317
 214   1      4.2467537  20.4806279  11.0633409
 215   2      3.5383184  19.7471916  10.9210616
 216   2      4.9901046  20.1275467  10.4926676
 217   1      8.9576170  -0.0969227  16.3569801
 218   2      9.0832982   0.7141578  15.7169128
 219   2      8.0059410  -0.0583233  16.7526558
 220   1     17.6716496   6.9089396   9.7618645
 221   2     18.5473808   6.3512322   9.9038633
 222   2     17.8910895   7.5366367   8.8965127
 223   1     18.6772694  11.5332587   5.6762715
 224   2     18.8210658  12.0844425   4.8003129
 225   2     17.8086177  11.0168989   5.7216466
 226   1      9.0417360  16.5958494   3.5920990
 227   2      8.1910592  15.9653809   3.6340991
 228   2      9.2740317  16.9490099   4.5171036
 229   1      2.3612271  15.1226733  10.2561151
 230   2      3.0198344  15.3138305  11.0127616
 231   2      2.8150011  15.4930241   9.3532602
 232   1      7.5472800   3.4358372   7.1766596
 233   2      7.1435086   3.0665058   6.3281049
 234   2      6.7520549   3.4706473   7.7712611
 235   1      7.5169010  11.1038109   4.2195321
 236   2      7.7239226  10.7327069   3.2860161
 237   2      6.5067385  10.9671984   4.3331868
 238   1      6.6107759   3.1451575  18.7275848
 239   2      6.2091282   3.4230959  17.8453235
 240   2      6.4350323   3.9476077  19.3243239
 241   1      4.4849343  11.5256443  11.1030409
 242   2      4.8534196  12.3505759  10.5239933
 243   2      3.6151695  11.4701161  10.6423349
 244   1     10.5748536   8.1987864  11.9727938
 245   2     10.5825263   7.7781780  11.0897511
 246   2     11.5566675   8.2815712  12.3514500
 247   1      3.2768986  10.4601335  16.2082358
 248   2      3.8875626  11.2993075  16.1945557
 249   2      3.0701285  10.0484356  15.2279610
 250   1      4.7831020   3.1721305  10.9893737
 251   2      5.1877932   3.2253748  11.9373100
 252   2      4.5884775   2.2314607  10.7380285
 253   1      8.4322495  13.2076946   6.2047001
 254   2      9.3896577  13.0842840   6.4265391
 255   2      8.0625817  12.2628032   5.8919863
 256   1     12.1432894  17.6971111   9.9686146
 257   2     13.1461115  17.9993603   9.8333918
 258   2     12.0550822  16.9530468  10.6278761
 259   1      6.2545372   6.3714153  12.7057213
 260   2      6.2624484   7.1543931  13.3736108
 261   2      5.5865688   6.6732617  11.9980713
 262   1      8.4247361   4.4850777   3.3317824
 263   2      9.3634369   4.2434370   3.1163039
 264   2      8.4259016   5.4995502   3.4790151
 265   1     18.7115320   6.3348599  14.6022736
 266   2     18.9977801   5.3305550  14.3815954
 267   2     18.3503583   6.7375036  13.7360031
 268   1      7.9884705   7.2727808   3.7405516
 269   2      8.3117280   7.3410060   2.7099922
 270   2      8.3535949   7.9550252   4.3546282
 271   1      4.6454107   4.0222542   3.1341749
 272   2      5.2985383   3.5752752   3.8303028
 273   2      4.1156537   4.6696254   3.7422447
 274   1     12.0151001   6.7484948   2.3941968
 275   2     11.8394132   7.5995037   2.8781127
 276   2     12.8021705   6.8301967   1.7239630
 277   1      3.8423570  17.2657246  17.4802538
 278   2      3.1337881  17.9320705  17.7866384
 279   2      4.3781676  17.6901654  16.7211309
 280   1     11.3578801  14.4587914  16.1285893
 281   2     10.8179378  14.5116856  15.2679896
 282   2     11.2350974  13.4500257  16.4844517
 283   1     10.8277009   0.4730292   4.6756290
 284   2     11.4571228   1.2118639   4.3576383
 285   2      9.8553421   0.6484252   4.3650310
 286   1     14.8783419   2.4953550   2.7945925
 287   2     15.1043187   3.3988058   3.1787429
 288   2     14.7389166   2.5666471   1.7525310
 289   1      0.7803179   7.9168255  16.2419889
 290   2      0.5307743   7.3795772  15.4730596
 291   2      1.5203337   8.4342774  15.7892800
 292   1      9.4558257   1.9211068   8.3972470
 293   2     10.3253215   2.3323850   7.9675554
 294   2      8.6684643   2.2018636   7.7924720
 295   1     14.9991955  15.0855266   2.7215397
 296   2     15.5896762  15.8985736   2.3757823
 297   2     15.1770901  14.2838025   2.1508917
 298   1     11.8475061   5.8862487  17.3040036
 299   2     12.1315238   5.0930086  17.9468475
 300   2     10.9452944   6.1789961  17.7458180
 301   1     10.7530529   8.9929976   9.2834052
 302   2     10.2769025   9.8741178   9.4727586
 303   2     10.1730577   8.4815124   8.6368252
 304   1      4.9618041  16.1191695   5.8311284
 305   2      5.8538761  15.6410802   5.7249376
 306   2      4.6666936  16.3955113   4.8809516
 307   1      1.1954205  17.7574839   6.0938955
 308   2      1.5938993  17.1144695   5.3929012
 309   2      2.0143943  18.1346716   6.4757931
 310   1      3.3968712   1.3257274   8.1090563
 311   2      2.6066235   1.8932400   8.3445149
 312   2      3.1157235   0.3609267   7.9384569
 313   1     11.8063079   2.6989204  10.2696195
 314   2     12.3222645   3.4809483  10.7457651
 315   2     11.0568451   3.0731475   9.6818672
 316   1      7.7270847  14.8090018   8.0677821
 317   2      8.6795461  14.8649716   8.5965982
 318   2      7.9855443  14.3151275   7.2012122
 319   1      6.7009246   2.9381200   4.5957233
 320   2      7.2400217   3.7654624   4.2723968
 321   2      6.9897450   2.0747233   4.1000294
 322   1     11.2185383   4.8760203   4.7162856
 323   2     12.1153674   4.7288296   5.2667906
 324   2     11.3025354   5.7459439   4.1822082
 325   1     16.6929587   0.5390306   0.3794866
 326   2     16.0507917  -0.2196885   0.1906652
 327   2     17.1592338   0.1363309   1.2431572
 328   1     14.4670219  19.6344955  13.7718909
 329   2     14.3328336  20.1002452  12.8161579
 330   2     15.2235273  20.1200661  14.2131761
 331   1     -0.0168379   4.8214662   7.5196770
 332   2      0.4345464   5.6525519   7.8039893
 333   2     -0.0460497   4.8892417   6.5100773
 334   1     16.3149706   1.1128635  14.7234457
 335   2     16.8115403   1.9088070  15.1524614
 336   2     16.3298620   0.3641490  15.4355936
 337   1     16.8278923  11.5131352   1.6016366
 338   2     16.5135679  11.9200308   0.6886268
 339   2     16.0098661  11.5764724   2.2825060
 340   1     15.0429339   2.8337155  19.6599423
 341   2     15.5948809   1.9826139  19.6091483
 342   2     15.3686553   3.5317183  18.9320890
 343   1      1.4921577   8.6113759   5.1440465
 344   2      1.7700970   9.0353961   6.0272754
 345   2      0.5139633   8.3270792   5.2793245
 346   1      8.0303006   9.5286538   2.0041551
 347   2      8.3574913   8.5682687   1.7260305
 348   2      8.5758701  10.1786955   1.3933368
 349   1     13.9077818   6.7362926  10.3743351
 350   2     13.8952546   7.4462803   9.6053183
 351   2     14.4474283   6.9010360  11.2909523
 352   1      5.5061647   7.4157688   5.0151002
 353   2      6.4611602   7.5006812   4.6744635
 354   2      5.4739970   6.7989898   5.7759320
 355   1     14.0253678  17.5717940   4.6871022
 356   2     13.3709640  17.6431035   5.4236496
 357   2     13.5364138  17.8470969   3.8309139
 358   1      1.3441704  13.0502011   6.9539310
 359   2      0.5686543  12.5562463   6.5076012
 360   2      0.9677153  13.8132721   7.5261683
 361   1     15.5876987  16.1822113  13.7259199
 362   2     15.0860806  17.0441617  14.1092826
 363   2     15.0623459  15.4290703  14.0957881
 364   1      6.8908566   9.7000727   9.3075441
 365   2      7.1064498   8.6771413   9.3141214
 366   2      6.8598841  10.0470350  10.2636974
 367   1     14.8869856  14.5969209   9.7322864
 368   2     15.4676190  15.3400226  10.0935553
 369   2     15.1135699  14.4669293   8.7402790
 370   1      1.6269081   1.9482026  12.9976539
 371   2      1.1626356   1.3344402  12.2743401
 372   2      2.0843317   1.3635900  13.6266396
 373   1      9.3979144  19.2614288   8.5163128
 374   2      9.3511095  20.3062937   8.4968016
 375   2     10.1138305  19.1129230   9.1797732
 376   1     12.3192708  18.9086761   2.0608111
 377   2     11.9146166  19.6487260   2.5832891
 378   2     12.7363483  19.4197915   1.2857809
 379   1      9.0943067  17.3357073  14.6743697
 380   2      9.2791008  17.8273039  15.5631172
 381   2      9.4437148  18.0193077  14.0077789
 382   1      2.2887308   2.5066906   5.5156842
 383   2      2.8392566   1.9823382   4.8510315
 384   2      2.6416902   2.1654815   6.4663169
 385   1      9.4438919   6.7538918  18.2611565
 386   2      9.0827137   5.9768802  17.6712993
 387   2      8.8305276   7.5241458  18.1619803
 388   1     16.7526042  15.8259394  11.2119777
 389   2     17.6860988  16.0539572  11.5355926
 390   2     16.1635122  15.9667706  12.0686463
 391   1     11.5845923  19.9547225  17.7415077
 392   2     11.6440252  20.7429282  17.0224226
 393   2     10.6357973  19.5137072  17.7112442
 394   1      2.6787878  18.5100144  10.2918083
 395   2      1.8322226  18.6908265  10.6999803
 396   2      2.8999477  17.5591134  10.6143161
 397   1      0.5696499   9.0519202  12.6231741
 398   2      0.5440695   9.4984283  11.6249586
 399   2      0.0415460   8.1731264  12.4479491
 400   1      0.3715540  15.4495462   2.2151791
 401   2      0.7695043  14.6146620   1.8096839
 402   2      0.1636841  16.0016856   1.4004135
 403   1      6.7448680  11.6025623  17.1655981
 404   2      6.1117318  11.8296194  16.4137460
 405   2      6.2897637  11.9295153  18.0361825
 406   1     15.0611791   9.8906314  19.0150488
 407   2     15.3524346  10.8703462  19.1741090
 408   2     15.9299858   9.2636752  18.9365130
 409   1     17.8436659   8.6030126   5.0813440
 410   2     16.8886715   8.4384748   5.2630188
 411   2     18.0107526   8.8052692   4.0649513
 412   1     14.4603014   7.5311672   1.1510551
 413   2     15.0280812   6.7100951   0.9519844
 414   2     14.6050070   8.3761498   0.6202272
 415   1      5.5753944  11.2312333  13.5138914
 416   2      5.1079428  11.5195306  12.5975526
 417   2      5.4007337  11.8851277  14.2534467
 418   1     15.1032562   3.0923395  10.4610474
 419   2     14.9937728   3.7456209   9.6629513
 420   2     15.9675687   3.2766549  11.0128842
 421   1     16.3907407  13.8885653   7.4506404
 422   2     17.1832822  14.2265225   7.9825217
 423   2     16.6567521  13.7963435   6.4814028
 424   1     13.2408767   0.1593814  19.7341819
 425   2     13.1744443   1.1565711  19.7187017
 426   2     12.7336940  -0.1768046  18.9183602
 427   1     16.6798948  17.2188846   5.4503982
 428   2     16.9472149  16.4166207   4.9471969
 429   2     15.6293984  17.3849182   5.2906273
 430   1     18.2820582  16.9264625   7.6847818
 431   2     17.4989041  16.8283657   7.0536000
 432   2     19.0625362  17.1700786   7.0428378
 433   1     10.1660851  14.6064169   8.8514704
 434   2     10.5511911  14.0050737   9.5113109
 435   2     10.8638777  15.1796720   8.3488031
 436   1      1.3599395  13.4322282   0.6714351
 437   2      2.3399844  13.6046277   0.4302712
 438   2      0.8846896  12.9788738  -0.0561812
 439   1     18.3504926   0.2894460  13.1654950
 440   2     18.7035475   0.4575474  14.0991335
 441   2     17.3019227   0.5832140  13.3536774
 442   1      1.4884222  17.9960124  14.8256320
 443   2      0.6536915  17.4950246  14.9941608
 444   2      2.2944128  17.4229419  14.6760224
 445   1      9.6731720  10.8439481  13.2197725
 446   2      9.5344024  10.9465951  14.2362322
 447   2      9.9642099   9.8679173  13.0477075
 448   1      8.3945417   4.8449413  16.6427649
 449   2      8.4497360   3.8826385  16.3281087
 450   2      7.5284024   5.2581016  16.3015546
 451   1      7.3977747  10.8004671  11.7361357
 452   2      6.6770367  10.8320169  12.4548493
 453   2      8.2512715  10.9238754  12.2233685
 454   1     11.0884956  13.7825321   2.9168109
 455   2     11.4061490  14.2633191   3.7619080
 456   2     10.5720523  14.4066599   2.3169900
 457   1      6.8441163  15.7587510  10.6974039
 458   2      7.2239457  15.3629049   9.8113806
 459   2      7.7103659  16.2034302  11.0640054
 460   1      5.1332134  10.1765781   5.1535319
 461   2      5.0494592  10.5665579   6.0677586
 462   2      5.4087982   9.2350728   5.1586508
 463   1     19.0647705   2.1617567   4.2050258
 464   2     19.9468684   1.9955555   4.7729474
 465   2     18.2747802   1.9706691   4.8859137
 466   1     16.0697089   5.0369942   3.7439406
 467   2     16.9032060   4.6765533   4.2407767
 468   2     16.2497282   5.2176800   2.7502700
 469   1     18.3911920   9.4180770   2.3882809
 470   2     17.7636343   9.9662799   1.7683218
 471   2     19.2583453   9.9184601   2.5158042
 472   1      0.2850303  15.5022108  11.7962632
 473   2      0.3527287  14.9299269  12.6607152
 474   2      0.9718989  15.2571963  11.1163029
 475   1      3.3343963   1.3080857   3.3174289
 476   2      3.3369227   2.1899198   2.9073554
 477   2      3.9822634   0.7556251   2.7002474
 478   1      9.1880053   8.2008121  14.5608755
 479   2     10.0772015   8.0427773  15.0098774
 480   2      9.2350900   7.7231379  13.6460980
 481   1     10.3236515  19.3880388  13.1896384
 482   2     10.8700092  20.1873051  12.8410992
 483   2     11.0166480  18.7743867  13.6921960
 484   1      4.7606449  20.0547219   1.5788116
 485   2      4.5084380  20.2298831   0.6208778
 486   2      5.7817326  20.0790144   1.5903637
 487   1      8.1261091   1.0109462  13.4831496
 488   2      9.0319036   0.5175906  13.4210235
 489   2      8.0523544   1.3918153  12.5588013
 490   1     18.7086890  10.6885028  10.3320134
 491   2     17.8802095  11.1145721  10.7372584
 492   2     18.4663655  10.2189188   9.4624899
 493   1     16.3129878   5.5278591   1.0608030
 494   2     16.4544413   4.5530688   0.7856936
 495   2     17.2436381   6.0185192   0.9495897
 496   1      9.7609468  15.1182110   0.8268705
 497   2      9.2890127  16.0190929   0.8910612
 498   2      9.1534667  14.3190521   0.4733674
 499   1     13.0172330  11.0263157  15.2995670
 500   2     13.2709320  10.0985453  15.7073472
 501   2     13.9026780  11.4916321  14.9709868
 502   1     18.4085169  11.6366243  13.4736090
 503   2     17.7304065  12.0984402  12.8115311
 504   2     18.7242827  10.7086273  13.2409737
 505   1      3.2640939  14.8618862   7.6791892
 506   2      3.7888268  15.4587611   6.9823696
 507   2      2.8296713  14.0511440   7.2452935
 508   1     18.5389820   0.4648044  17.6169704
 509   2     18.0821877  -0.2755454  17.0720599
 510   2     18.2097420   0.8516952  18.5452016
 511   1     18.8009453   5.0099450   5.0583839
 512   2     19.1994904   4.0372296   4.9196979
 513   2     19.0819216   5.5030447   4.2046245
 514   1      1.4788943  10.5669547   3.1563108
 515   2      2.1873168  10.3757752   2.4388429
 516   2      1.7942651   9.9267156   3.9149873
 517   1     13.7547739  13.5041027  11.8068907
 518   2     13.0146973  12.7753380  11.5574622
 519   2     14.1092175  13.9570933  10.9813698
 520   1     11.0159788  11.9036709  16.7870769
 521   2     11.8312884  11.4228223  16.2513054
 522   2     10.1303503  11.5393407  16.5217110
 523   1     13.5417532   4.9962148  15.4588031
 524   2     14.3851450   4.3764827  15.7335079
 525   2     13.1550651   5.5375005  16.2598446
 526   1     17.9858561   2.9920684   1.9789901
 527   2     18.5001316   2.8123671   2.8580684
 528   2     17.1952422   2.3659009   2.0488436
 529   1      6.7101702  19.1631008   5.8145470
 530   2      7.5514338  18.6062464   5.8922619
 531   2      6.2066905  18.9768547   6.6703712
 532   1      2.1430251  10.1166973   7.4213889
 533   2      3.1539827  10.1413121   7.5759145
 534   2      1.7868820  11.0102925   7.7324055
 535   1      5.0598026   7.9202839  19.3491123
 536   2      5.1389359   8.2161047  18.3228307
 537   2      6.0183162   7.9939392  19.7205899
 538   1     14.6499575  11.6542769   3.2795789
 539   2     14.6538753  11.7912723   4.3111364
 540   2     13.6753921  11.4980271   2.8631116
 541   1      7.9249942   0.6067155   3.8839013
 542   2      7.5405130   0.0937521   4.7211821
 543   2      7.5964492   0.2893694   2.9813720
 544   1      5.1298037   3.5108960   8.5410209
 545   2      4.9969510   3.5165703   9.5590343
 546   2      4.5250707   2.6721340   8.3260288
 547   1      2.3303924  13.1005830   4.4672194
 548   2      1.9721845  12.3560486   3.8413530
 549   2      1.9713968  12.8810636   5.3754436
 550   1     16.7371331  17.2988006   1.5392242
 551   2     17.3445883  18.1210740   1.8952415
 552   2     15.8331562  17.5713389   1.1533526
 553   1      5.3077666   6.0724562   7.2332300
 554   2      5.7343866   6.5871497   7.9761357
 555   2      5.2730321   5.1064071   7.6381345
 556   1      3.1937134   6.3541438  14.0780309
 557   2      2.7536269   5.8115016  13.3844644
 558   2      4.0728958   5.9200332  14.4895379
 559   1     14.5347053   3.4323154   6.9967976
 560   2     15.3971629   3.7533842   7.4117878
 561   2     14.5571066   2.5227295   6.6332936
 562   1     17.7325830   0.8279612   6.4370473
 563   2     16.6667703   0.5463972   6.4410874
 564   2     18.2379817   0.0976308   5.9443966
 565   1      7.1305882  14.8229104   4.6332785
 566   2      6.4522444  14.2159088   4.0536402
 567   2      7.7702158  14.2375690   5.1439520
 568   1     18.3244695  16.4785231  14.7215777
 569   2     18.6480859  15.5209406  14.9113739
 570   2     17.3549640  16.4338438  14.3215964
 571   1      0.4956383  14.0430005  14.0199326
 572   2      0.1104707  13.1151619  13.7024976
 573   2      1.2581328  13.7529537  14.6359768
 574   1      8.9223994  17.5640089  11.2705463
 575   2      9.7620779  17.4715240  10.7142924
 576   2      9.2079155  18.0892827  12.0669804
 577   1      5.4728639   8.8358415  16.9494978
 578   2      5.8143089   8.5370000  16.0607402
 579   2      4.5090361   9.2767000  16.7508957
 580   1     13.3372440  14.1122381  18.3991240
 581   2     12.7790816  14.4692538  17.6184303
 582   2     13.0688367  14.4322273  19.3633993
 583   1      7.0357446  13.8801095  12.8602887
 584   2      6.3858838  14.3199710  12.2187519
 585   2      7.1396630  12.8828851  12.7006579
 586   1     16.3672026   9.3735959  15.4377907
 587   2     16.1895570   9.2373592  14.3832716
 588   2     16.6729898  10.3822029  15.6011498
 589   1     18.7208668  10.1936156  17.5338283
 590   2     19.0503061   9.5910441  16.8268094
 591   2     17.8824464  10.5438644  17.0879230
 592   1     14.3862825  17.9404379  19.7215120
 593   2     13.8858473  18.8335568  19.6497549
 594   2     13.7820152  17.1677552  20.0248525
 595   1     17.6460951   8.7496301   7.6758357
 596   2     17.2148286   9.6325983   7.8511251
 597   2     18.0534741   8.7506918   6.7821498
 598   1     12.2523002  16.3714454   7.6295012
 599   2     12.2012695  16.8024092   8.6000586
 600   2     12.0540595  17.2371440   7.1028690
 601   1     17.1300810  11.8706112  15.8624626
 602   2     17.5899796  12.0140987  14.9605724
 603   2     16.7618630  12.7775114  16.2098935
 604   1      9.3574518  17.6929348  18.2561031
 605   2      9.2933085  17.8334965  19.2762470
 606   2      8.5353100  18.1423780  17.8342513
 607   1     13.5020372   8.8725916   8.5468599
 608   2     12.4957455   8.9783872   8.5215154
 609   2     13.7344004   8.9023535   7.5443926
 610   1     11.9710674  18.5617243   6.2087385
 611   2     11.3209143  19.2081300   5.7247540
 612   2     12.3960621  19.1917362   6.9113725
 613   1     10.0409470   5.3732532   9.5141869
 614   2      9.2292349   5.1725686  10.0639122
 615   2      9.8770287   5.3409380   8.4776997
 616   1     12.4841362   0.9401300  15.2565404
 617   2     13.3510029   0.4161813  15.2143211
 618   2     12.2874970   1.4357632  14.3724553
 619   1     17.5807094  18.7954346   9.6481663
 620   2     17.8258066  18.1913803   8.8861083
 621   2     18.2145355  18.6360196  10.3854994